/*--------------------------------*- C++ -*----------------------------------*\
| =========                 |                                                 |
| \\      /  F ield         | OpenFOAM: The Open Source CFD Toolbox           |
|  \\    /   O peration     | Version:  3.0.1                                 |
|   \\  /    A nd           | Web:      www.OpenFOAM.org                      |
|    \\/     M anipulation  |                                                 |
\*---------------------------------------------------------------------------*/
FoamFile
{
    version     2.0;
    format      ascii;
    class       volVectorField;
    location    "0";
    object      U;
}
// * * * * * * * * * * * * * * * * * * * * * * * * * * * * * * * * * * * * * //

dimensions      [ 0 1 -1 0 0 0 0 ];

internalField   nonuniform List<vector> 
30320
(
(0.266206 3.23537e-05 0)
(0.266077 9.70336e-05 0)
(0.265819 0.000161631 0)
(0.265431 0.000226091 0)
(0.264915 0.000290359 0)
(0.264271 0.000354381 0)
(0.263498 0.000418103 0)
(0.262599 0.000481471 0)
(0.261574 0.000544432 0)
(0.260423 0.000606934 0)
(0.259148 0.000668925 0)
(0.25775 0.000730355 0)
(0.256229 0.000791173 0)
(0.254587 0.00085133 0)
(0.252826 0.000910778 0)
(0.250947 0.000969471 0)
(0.248951 0.00102736 0)
(0.246841 0.00108441 0)
(0.244617 0.00114056 0)
(0.242282 0.00119578 0)
(0.239837 0.00125003 0)
(0.237286 0.00130327 0)
(0.234628 0.00135545 0)
(0.231868 0.00140655 0)
(0.229006 0.00145653 0)
(0.226046 0.00150536 0)
(0.22299 0.00155299 0)
(0.219839 0.00159942 0)
(0.216597 0.0016446 0)
(0.213265 0.00168851 0)
(0.209848 0.00173112 0)
(0.206346 0.00177242 0)
(0.202763 0.00181238 0)
(0.199102 0.00185098 0)
(0.195365 0.0018882 0)
(0.191555 0.00192404 0)
(0.187675 0.00195847 0)
(0.183727 0.00199149 0)
(0.179715 0.00202308 0)
(0.175641 0.00205324 0)
(0.171508 0.00208196 0)
(0.167319 0.00210924 0)
(0.163077 0.00213506 0)
(0.158785 0.00215944 0)
(0.154446 0.00218237 0)
(0.150062 0.00220386 0)
(0.145637 0.00222391 0)
(0.141173 0.00224252 0)
(0.136674 0.00225971 0)
(0.132141 0.00227547 0)
(0.127578 0.00228983 0)
(0.122988 0.0023028 0)
(0.118374 0.00231438 0)
(0.113738 0.00232459 0)
(0.109083 0.00233345 0)
(0.104411 0.00234098 0)
(0.0997255 0.00234719 0)
(0.095029 0.00235211 0)
(0.090324 0.00235575 0)
(0.0856129 0.00235814 0)
(0.0808983 0.0023593 0)
(0.0761826 0.00235926 0)
(0.0714682 0.00235803 0)
(0.0667574 0.00235565 0)
(0.0620525 0.00235214 0)
(0.0573557 0.00234752 0)
(0.0526692 0.00234183 0)
(0.0479952 0.0023351 0)
(0.0433356 0.00232734 0)
(0.0386926 0.0023186 0)
(0.0340679 0.0023089 0)
(0.0294636 0.00229827 0)
(0.0248815 0.00228674 0)
(0.0203233 0.00227434 0)
(0.0157907 0.00226111 0)
(0.0112854 0.00224707 0)
(0.00680889 0.00223225 0)
(0.00236278 0.00221668 0)
(-0.00205148 0.0022004 0)
(-0.00643252 0.00218343 0)
(-0.010779 0.00216582 0)
(-0.0150896 0.00214757 0)
(-0.0193631 0.00212874 0)
(-0.0235985 0.00210933 0)
(-0.0277945 0.0020894 0)
(-0.0319501 0.00206896 0)
(-0.0360644 0.00204804 0)
(-0.0401365 0.00202667 0)
(-0.0441654 0.00200489 0)
(-0.0481504 0.00198271 0)
(-0.0520906 0.00196016 0)
(-0.0559855 0.00193727 0)
(-0.0598343 0.00191407 0)
(-0.0636364 0.00189059 0)
(-0.0673913 0.00186683 0)
(-0.0710985 0.00184284 0)
(-0.0747575 0.00181864 0)
(-0.078368 0.00179424 0)
(-0.0819295 0.00176966 0)
(-0.0854417 0.00174494 0)
(-0.0889044 0.00172009 0)
(-0.0923173 0.00169514 0)
(-0.0956802 0.00167009 0)
(-0.098993 0.00164498 0)
(-0.102256 0.00161981 0)
(-0.105468 0.00159461 0)
(-0.10863 0.00156939 0)
(-0.111741 0.00154418 0)
(-0.114802 0.00151898 0)
(-0.117813 0.0014938 0)
(-0.120773 0.00146868 0)
(-0.123683 0.00144361 0)
(-0.126544 0.00141861 0)
(-0.129354 0.00139369 0)
(-0.132115 0.00136887 0)
(-0.134826 0.00134416 0)
(-0.137488 0.00131956 0)
(-0.1401 0.00129509 0)
(-0.142664 0.00127075 0)
(-0.14518 0.00124656 0)
(-0.147647 0.00122252 0)
(-0.150067 0.00119864 0)
(-0.152439 0.00117493 0)
(-0.154763 0.00115139 0)
(-0.157041 0.00112803 0)
(-0.159272 0.00110485 0)
(-0.161457 0.00108186 0)
(-0.163597 0.00105907 0)
(-0.165691 0.00103648 0)
(-0.16774 0.00101408 0)
(-0.169744 0.000991896 0)
(-0.171705 0.000969916 0)
(-0.173622 0.000948146 0)
(-0.175495 0.000926587 0)
(-0.177325 0.000905243 0)
(-0.179113 0.000884112 0)
(-0.180859 0.000863198 0)
(-0.182564 0.000842499 0)
(-0.184227 0.000822016 0)
(-0.18585 0.000801749 0)
(-0.187432 0.000781698 0)
(-0.188974 0.000761861 0)
(-0.190477 0.000742238 0)
(-0.191941 0.000722828 0)
(-0.193367 0.000703628 0)
(-0.194754 0.000684637 0)
(-0.196104 0.000665854 0)
(-0.197416 0.000647275 0)
(-0.198691 0.000628899 0)
(-0.19993 0.000610722 0)
(-0.201132 0.000592742 0)
(-0.202299 0.000574955 0)
(-0.203431 0.000557359 0)
(-0.204527 0.000539951 0)
(-0.205589 0.000522725 0)
(-0.206617 0.00050568 0)
(-0.20761 0.000488811 0)
(-0.20857 0.000472114 0)
(-0.209497 0.000455584 0)
(-0.210392 0.000439219 0)
(-0.211253 0.000423013 0)
(-0.212083 0.000406961 0)
(-0.21288 0.00039106 0)
(-0.213646 0.000375305 0)
(-0.21438 0.000359691 0)
(-0.215084 0.000344213 0)
(-0.215756 0.000328866 0)
(-0.216398 0.000313646 0)
(-0.21701 0.000298546 0)
(-0.217592 0.000283563 0)
(-0.218143 0.000268691 0)
(-0.218666 0.000253925 0)
(-0.219158 0.000239259 0)
(-0.219622 0.000224688 0)
(-0.220057 0.000210207 0)
(-0.220462 0.00019581 0)
(-0.220839 0.000181492 0)
(-0.221188 0.000167247 0)
(-0.221508 0.000153071 0)
(-0.2218 0.000138956 0)
(-0.222063 0.000124898 0)
(-0.222299 0.000110892 0)
(-0.222507 9.69307e-05 0)
(-0.222686 8.30094e-05 0)
(-0.222838 6.91222e-05 0)
(-0.222963 5.52635e-05 0)
(-0.223059 4.14277e-05 0)
(-0.223128 2.76089e-05 0)
(-0.22317 1.38016e-05 0)
(-0.223184 1.19589e-13 0)
(-0.22317 -1.38016e-05 0)
(-0.223128 -2.76089e-05 0)
(-0.223059 -4.14277e-05 0)
(-0.222963 -5.52635e-05 0)
(-0.222838 -6.91222e-05 0)
(-0.222686 -8.30094e-05 0)
(-0.222507 -9.69307e-05 0)
(-0.222299 -0.000110892 0)
(-0.222063 -0.000124898 0)
(-0.2218 -0.000138956 0)
(-0.221508 -0.000153071 0)
(-0.221188 -0.000167247 0)
(-0.220839 -0.000181492 0)
(-0.220462 -0.00019581 0)
(-0.220057 -0.000210207 0)
(-0.219622 -0.000224688 0)
(-0.219158 -0.000239259 0)
(-0.218666 -0.000253925 0)
(-0.218143 -0.000268691 0)
(-0.217592 -0.000283563 0)
(-0.21701 -0.000298546 0)
(-0.216398 -0.000313646 0)
(-0.215756 -0.000328866 0)
(-0.215084 -0.000344213 0)
(-0.21438 -0.000359691 0)
(-0.213646 -0.000375305 0)
(-0.21288 -0.00039106 0)
(-0.212083 -0.000406961 0)
(-0.211253 -0.000423013 0)
(-0.210392 -0.000439219 0)
(-0.209497 -0.000455584 0)
(-0.20857 -0.000472114 0)
(-0.20761 -0.000488811 0)
(-0.206617 -0.00050568 0)
(-0.205589 -0.000522725 0)
(-0.204527 -0.000539951 0)
(-0.203431 -0.000557359 0)
(-0.202299 -0.000574955 0)
(-0.201132 -0.000592742 0)
(-0.19993 -0.000610722 0)
(-0.198691 -0.000628899 0)
(-0.197416 -0.000647275 0)
(-0.196104 -0.000665854 0)
(-0.194754 -0.000684637 0)
(-0.193367 -0.000703628 0)
(-0.191941 -0.000722828 0)
(-0.190477 -0.000742238 0)
(-0.188974 -0.000761861 0)
(-0.187432 -0.000781698 0)
(-0.18585 -0.000801749 0)
(-0.184227 -0.000822016 0)
(-0.182564 -0.000842499 0)
(-0.180859 -0.000863198 0)
(-0.179113 -0.000884112 0)
(-0.177325 -0.000905243 0)
(-0.175495 -0.000926587 0)
(-0.173622 -0.000948146 0)
(-0.171705 -0.000969916 0)
(-0.169744 -0.000991896 0)
(-0.16774 -0.00101408 0)
(-0.165691 -0.00103648 0)
(-0.163597 -0.00105907 0)
(-0.161457 -0.00108186 0)
(-0.159272 -0.00110485 0)
(-0.157041 -0.00112803 0)
(-0.154763 -0.00115139 0)
(-0.152439 -0.00117493 0)
(-0.150067 -0.00119864 0)
(-0.147647 -0.00122252 0)
(-0.14518 -0.00124656 0)
(-0.142664 -0.00127075 0)
(-0.1401 -0.00129509 0)
(-0.137488 -0.00131956 0)
(-0.134826 -0.00134416 0)
(-0.132115 -0.00136887 0)
(-0.129354 -0.00139369 0)
(-0.126544 -0.00141861 0)
(-0.123683 -0.00144361 0)
(-0.120773 -0.00146868 0)
(-0.117813 -0.0014938 0)
(-0.114802 -0.00151898 0)
(-0.111741 -0.00154418 0)
(-0.10863 -0.00156939 0)
(-0.105468 -0.00159461 0)
(-0.102256 -0.00161981 0)
(-0.098993 -0.00164498 0)
(-0.0956802 -0.00167009 0)
(-0.0923173 -0.00169514 0)
(-0.0889044 -0.00172009 0)
(-0.0854417 -0.00174494 0)
(-0.0819295 -0.00176966 0)
(-0.078368 -0.00179424 0)
(-0.0747575 -0.00181864 0)
(-0.0710985 -0.00184284 0)
(-0.0673913 -0.00186683 0)
(-0.0636364 -0.00189059 0)
(-0.0598343 -0.00191407 0)
(-0.0559855 -0.00193727 0)
(-0.0520906 -0.00196016 0)
(-0.0481504 -0.00198271 0)
(-0.0441654 -0.00200489 0)
(-0.0401365 -0.00202667 0)
(-0.0360644 -0.00204804 0)
(-0.0319501 -0.00206896 0)
(-0.0277945 -0.0020894 0)
(-0.0235985 -0.00210933 0)
(-0.0193631 -0.00212874 0)
(-0.0150896 -0.00214757 0)
(-0.010779 -0.00216582 0)
(-0.00643252 -0.00218343 0)
(-0.00205148 -0.0022004 0)
(0.00236279 -0.00221668 0)
(0.00680889 -0.00223225 0)
(0.0112854 -0.00224707 0)
(0.0157907 -0.00226111 0)
(0.0203233 -0.00227434 0)
(0.0248815 -0.00228674 0)
(0.0294636 -0.00229827 0)
(0.0340679 -0.0023089 0)
(0.0386926 -0.0023186 0)
(0.0433356 -0.00232734 0)
(0.0479952 -0.0023351 0)
(0.0526692 -0.00234183 0)
(0.0573557 -0.00234752 0)
(0.0620525 -0.00235214 0)
(0.0667574 -0.00235565 0)
(0.0714682 -0.00235803 0)
(0.0761826 -0.00235926 0)
(0.0808983 -0.0023593 0)
(0.0856129 -0.00235814 0)
(0.090324 -0.00235575 0)
(0.095029 -0.00235211 0)
(0.0997255 -0.00234719 0)
(0.104411 -0.00234098 0)
(0.109083 -0.00233345 0)
(0.113738 -0.00232459 0)
(0.118374 -0.00231438 0)
(0.122988 -0.0023028 0)
(0.127578 -0.00228983 0)
(0.132141 -0.00227547 0)
(0.136674 -0.00225971 0)
(0.141173 -0.00224252 0)
(0.145637 -0.00222391 0)
(0.150062 -0.00220386 0)
(0.154446 -0.00218237 0)
(0.158785 -0.00215944 0)
(0.163077 -0.00213506 0)
(0.167319 -0.00210924 0)
(0.171508 -0.00208196 0)
(0.175641 -0.00205324 0)
(0.179715 -0.00202308 0)
(0.183727 -0.00199149 0)
(0.187675 -0.00195847 0)
(0.191555 -0.00192404 0)
(0.195365 -0.0018882 0)
(0.199102 -0.00185098 0)
(0.202763 -0.00181238 0)
(0.206346 -0.00177242 0)
(0.209848 -0.00173112 0)
(0.213265 -0.00168851 0)
(0.216597 -0.0016446 0)
(0.219839 -0.00159942 0)
(0.22299 -0.00155299 0)
(0.226046 -0.00150536 0)
(0.229006 -0.00145653 0)
(0.231868 -0.00140655 0)
(0.234628 -0.00135545 0)
(0.237286 -0.00130327 0)
(0.239837 -0.00125003 0)
(0.242282 -0.00119578 0)
(0.244617 -0.00114056 0)
(0.246841 -0.00108441 0)
(0.248951 -0.00102736 0)
(0.250947 -0.000969471 0)
(0.252826 -0.000910778 0)
(0.254587 -0.00085133 0)
(0.256229 -0.000791173 0)
(0.25775 -0.000730355 0)
(0.259148 -0.000668925 0)
(0.260423 -0.000606934 0)
(0.261574 -0.000544432 0)
(0.262599 -0.000481471 0)
(0.263498 -0.000418103 0)
(0.264271 -0.000354381 0)
(0.264915 -0.000290359 0)
(0.265431 -0.000226091 0)
(0.265819 -0.000161631 0)
(0.266077 -9.70336e-05 0)
(0.266206 -3.23537e-05 0)
(0.266336 9.70887e-05 0)
(0.266207 0.000291183 0)
(0.265948 0.000485031 0)
(0.26556 0.000678466 0)
(0.265043 0.000871325 0)
(0.264398 0.00106344 0)
(0.263626 0.00125466 0)
(0.262726 0.00144482 0)
(0.2617 0.00163375 0)
(0.260548 0.00182131 0)
(0.259272 0.00200734 0)
(0.257872 0.00219168 0)
(0.25635 0.00237418 0)
(0.254707 0.0025547 0)
(0.252944 0.00273309 0)
(0.251064 0.00290922 0)
(0.249066 0.00308293 0)
(0.246954 0.00325411 0)
(0.244728 0.00342261 0)
(0.242391 0.00358832 0)
(0.239945 0.0037511 0)
(0.237391 0.00391085 0)
(0.234732 0.00406745 0)
(0.231969 0.00422078 0)
(0.229105 0.00437075 0)
(0.226143 0.00451726 0)
(0.223084 0.0046602 0)
(0.219931 0.0047995 0)
(0.216686 0.00493506 0)
(0.213352 0.00506681 0)
(0.209932 0.00519468 0)
(0.206428 0.00531859 0)
(0.202842 0.00543849 0)
(0.199178 0.00555431 0)
(0.195438 0.00566601 0)
(0.191625 0.00577353 0)
(0.187742 0.00587684 0)
(0.183792 0.0059759 0)
(0.179776 0.00607069 0)
(0.1757 0.00616117 0)
(0.171564 0.00624733 0)
(0.167372 0.00632916 0)
(0.163127 0.00640664 0)
(0.158833 0.00647978 0)
(0.15449 0.00654857 0)
(0.150104 0.00661303 0)
(0.145676 0.00667316 0)
(0.141209 0.00672899 0)
(0.136707 0.00678054 0)
(0.132171 0.00682783 0)
(0.127606 0.0068709 0)
(0.123013 0.00690978 0)
(0.118396 0.0069445 0)
(0.113757 0.00697513 0)
(0.109099 0.0070017 0)
(0.104425 0.00702426 0)
(0.0997366 0.00704288 0)
(0.0950376 0.00705761 0)
(0.09033 0.00706852 0)
(0.0856165 0.00707566 0)
(0.0808994 0.00707912 0)
(0.0761813 0.00707896 0)
(0.0714646 0.00707525 0)
(0.0667515 0.00706807 0)
(0.0620443 0.00705751 0)
(0.0573454 0.00704364 0)
(0.0526568 0.00702654 0)
(0.0479807 0.00700631 0)
(0.0433191 0.00698302 0)
(0.0386741 0.00695676 0)
(0.0340476 0.00692763 0)
(0.0294415 0.00689571 0)
(0.0248575 0.00686109 0)
(0.0202976 0.00682387 0)
(0.0157634 0.00678413 0)
(0.0112565 0.00674197 0)
(0.00677846 0.00669748 0)
(0.0023309 0.00665076 0)
(-0.00208477 0.00660189 0)
(-0.00646714 0.00655096 0)
(-0.0108149 0.00649807 0)
(-0.0151267 0.00644331 0)
(-0.0194014 0.00638677 0)
(-0.0236379 0.00632854 0)
(-0.0278349 0.0062687 0)
(-0.0319915 0.00620735 0)
(-0.0361068 0.00614457 0)
(-0.0401797 0.00608044 0)
(-0.0442094 0.00601505 0)
(-0.0481951 0.00594848 0)
(-0.0521361 0.00588082 0)
(-0.0560316 0.00581214 0)
(-0.059881 0.00574251 0)
(-0.0636837 0.00567202 0)
(-0.0674391 0.00560074 0)
(-0.0711468 0.00552875 0)
(-0.0748062 0.0054561 0)
(-0.078417 0.00538288 0)
(-0.0819788 0.00530914 0)
(-0.0854913 0.00523496 0)
(-0.0889542 0.00516039 0)
(-0.0923674 0.0050855 0)
(-0.0957304 0.00501035 0)
(-0.0990434 0.00493498 0)
(-0.102306 0.00485947 0)
(-0.105518 0.00478385 0)
(-0.10868 0.00470818 0)
(-0.111792 0.00463252 0)
(-0.114852 0.0045569 0)
(-0.117863 0.00448137 0)
(-0.120823 0.00440597 0)
(-0.123734 0.00433075 0)
(-0.126594 0.00425575 0)
(-0.129404 0.00418099 0)
(-0.132164 0.00410652 0)
(-0.134875 0.00403236 0)
(-0.137537 0.00395856 0)
(-0.140149 0.00388513 0)
(-0.142713 0.00381212 0)
(-0.145228 0.00373953 0)
(-0.147695 0.0036674 0)
(-0.150114 0.00359575 0)
(-0.152486 0.00352461 0)
(-0.15481 0.00345398 0)
(-0.157088 0.00338389 0)
(-0.159318 0.00331436 0)
(-0.161503 0.00324539 0)
(-0.163642 0.00317701 0)
(-0.165736 0.00310923 0)
(-0.167785 0.00304205 0)
(-0.169789 0.00297548 0)
(-0.171749 0.00290954 0)
(-0.173665 0.00284422 0)
(-0.175538 0.00277955 0)
(-0.177368 0.00271551 0)
(-0.179156 0.00265212 0)
(-0.180901 0.00258938 0)
(-0.182605 0.00252728 0)
(-0.184268 0.00246583 0)
(-0.18589 0.00240503 0)
(-0.187472 0.00234488 0)
(-0.189014 0.00228537 0)
(-0.190517 0.0022265 0)
(-0.19198 0.00216827 0)
(-0.193405 0.00211067 0)
(-0.194792 0.0020537 0)
(-0.196141 0.00199736 0)
(-0.197453 0.00194162 0)
(-0.198728 0.0018865 0)
(-0.199966 0.00183197 0)
(-0.201168 0.00177803 0)
(-0.202334 0.00172467 0)
(-0.203466 0.00167189 0)
(-0.204562 0.00161967 0)
(-0.205623 0.001568 0)
(-0.20665 0.00151686 0)
(-0.207644 0.00146626 0)
(-0.208604 0.00141617 0)
(-0.20953 0.00136659 0)
(-0.210424 0.0013175 0)
(-0.211285 0.00126888 0)
(-0.212115 0.00122073 0)
(-0.212912 0.00117304 0)
(-0.213677 0.00112577 0)
(-0.214411 0.00107894 0)
(-0.215114 0.00103251 0)
(-0.215787 0.000986472 0)
(-0.216429 0.000940816 0)
(-0.21704 0.000895523 0)
(-0.217621 0.000850579 0)
(-0.218173 0.000805968 0)
(-0.218695 0.000761674 0)
(-0.219188 0.000717681 0)
(-0.219651 0.000673974 0)
(-0.220086 0.000630536 0)
(-0.220491 0.000587351 0)
(-0.220868 0.000544403 0)
(-0.221216 0.000501674 0)
(-0.221536 0.00045915 0)
(-0.221828 0.000416812 0)
(-0.222091 0.000374644 0)
(-0.222327 0.00033263 0)
(-0.222535 0.000290752 0)
(-0.222714 0.000248994 0)
(-0.222866 0.000207338 0)
(-0.22299 0.000165768 0)
(-0.223087 0.000124266 0)
(-0.223156 8.28154e-05 0)
(-0.223197 4.13991e-05 0)
(-0.223211 3.58716e-13 0)
(-0.223197 -4.13991e-05 0)
(-0.223156 -8.28154e-05 0)
(-0.223087 -0.000124266 0)
(-0.22299 -0.000165768 0)
(-0.222866 -0.000207338 0)
(-0.222714 -0.000248994 0)
(-0.222535 -0.000290752 0)
(-0.222327 -0.00033263 0)
(-0.222091 -0.000374644 0)
(-0.221828 -0.000416812 0)
(-0.221536 -0.00045915 0)
(-0.221216 -0.000501674 0)
(-0.220868 -0.000544403 0)
(-0.220491 -0.000587351 0)
(-0.220086 -0.000630536 0)
(-0.219651 -0.000673974 0)
(-0.219188 -0.000717681 0)
(-0.218695 -0.000761674 0)
(-0.218173 -0.000805968 0)
(-0.217621 -0.000850579 0)
(-0.21704 -0.000895523 0)
(-0.216429 -0.000940816 0)
(-0.215787 -0.000986472 0)
(-0.215114 -0.00103251 0)
(-0.214411 -0.00107894 0)
(-0.213677 -0.00112577 0)
(-0.212912 -0.00117304 0)
(-0.212115 -0.00122073 0)
(-0.211285 -0.00126888 0)
(-0.210424 -0.0013175 0)
(-0.20953 -0.00136659 0)
(-0.208604 -0.00141617 0)
(-0.207644 -0.00146626 0)
(-0.20665 -0.00151686 0)
(-0.205623 -0.001568 0)
(-0.204562 -0.00161967 0)
(-0.203466 -0.00167189 0)
(-0.202334 -0.00172467 0)
(-0.201168 -0.00177803 0)
(-0.199966 -0.00183197 0)
(-0.198728 -0.0018865 0)
(-0.197453 -0.00194162 0)
(-0.196141 -0.00199736 0)
(-0.194792 -0.0020537 0)
(-0.193405 -0.00211067 0)
(-0.19198 -0.00216827 0)
(-0.190517 -0.0022265 0)
(-0.189014 -0.00228537 0)
(-0.187472 -0.00234488 0)
(-0.18589 -0.00240503 0)
(-0.184268 -0.00246583 0)
(-0.182605 -0.00252728 0)
(-0.180901 -0.00258938 0)
(-0.179156 -0.00265212 0)
(-0.177368 -0.00271551 0)
(-0.175538 -0.00277955 0)
(-0.173665 -0.00284422 0)
(-0.171749 -0.00290954 0)
(-0.169789 -0.00297548 0)
(-0.167785 -0.00304205 0)
(-0.165736 -0.00310923 0)
(-0.163642 -0.00317701 0)
(-0.161503 -0.00324539 0)
(-0.159318 -0.00331436 0)
(-0.157088 -0.00338389 0)
(-0.15481 -0.00345398 0)
(-0.152486 -0.00352461 0)
(-0.150114 -0.00359575 0)
(-0.147695 -0.0036674 0)
(-0.145228 -0.00373953 0)
(-0.142713 -0.00381212 0)
(-0.140149 -0.00388513 0)
(-0.137537 -0.00395856 0)
(-0.134875 -0.00403236 0)
(-0.132164 -0.00410652 0)
(-0.129404 -0.00418099 0)
(-0.126594 -0.00425575 0)
(-0.123734 -0.00433075 0)
(-0.120823 -0.00440597 0)
(-0.117863 -0.00448137 0)
(-0.114852 -0.0045569 0)
(-0.111792 -0.00463252 0)
(-0.10868 -0.00470818 0)
(-0.105518 -0.00478385 0)
(-0.102306 -0.00485947 0)
(-0.0990434 -0.00493498 0)
(-0.0957304 -0.00501035 0)
(-0.0923674 -0.0050855 0)
(-0.0889542 -0.00516039 0)
(-0.0854913 -0.00523496 0)
(-0.0819788 -0.00530914 0)
(-0.078417 -0.00538288 0)
(-0.0748062 -0.0054561 0)
(-0.0711468 -0.00552875 0)
(-0.0674391 -0.00560074 0)
(-0.0636837 -0.00567202 0)
(-0.059881 -0.00574251 0)
(-0.0560316 -0.00581214 0)
(-0.0521361 -0.00588082 0)
(-0.0481951 -0.00594848 0)
(-0.0442094 -0.00601505 0)
(-0.0401797 -0.00608044 0)
(-0.0361068 -0.00614457 0)
(-0.0319915 -0.00620735 0)
(-0.0278349 -0.0062687 0)
(-0.0236379 -0.00632854 0)
(-0.0194014 -0.00638677 0)
(-0.0151267 -0.00644331 0)
(-0.0108149 -0.00649807 0)
(-0.00646714 -0.00655096 0)
(-0.00208477 -0.00660189 0)
(0.0023309 -0.00665076 0)
(0.00677846 -0.00669748 0)
(0.0112565 -0.00674197 0)
(0.0157634 -0.00678413 0)
(0.0202976 -0.00682387 0)
(0.0248575 -0.00686109 0)
(0.0294415 -0.00689571 0)
(0.0340476 -0.00692763 0)
(0.0386741 -0.00695676 0)
(0.0433191 -0.00698302 0)
(0.0479807 -0.00700631 0)
(0.0526568 -0.00702654 0)
(0.0573454 -0.00704364 0)
(0.0620443 -0.00705751 0)
(0.0667515 -0.00706807 0)
(0.0714646 -0.00707525 0)
(0.0761813 -0.00707896 0)
(0.0808994 -0.00707912 0)
(0.0856165 -0.00707566 0)
(0.09033 -0.00706852 0)
(0.0950376 -0.00705761 0)
(0.0997366 -0.00704288 0)
(0.104425 -0.00702426 0)
(0.109099 -0.0070017 0)
(0.113757 -0.00697513 0)
(0.118396 -0.0069445 0)
(0.123013 -0.00690978 0)
(0.127606 -0.0068709 0)
(0.132171 -0.00682783 0)
(0.136707 -0.00678054 0)
(0.141209 -0.00672899 0)
(0.145676 -0.00667316 0)
(0.150104 -0.00661303 0)
(0.15449 -0.00654857 0)
(0.158833 -0.00647978 0)
(0.163127 -0.00640664 0)
(0.167372 -0.00632916 0)
(0.171564 -0.00624733 0)
(0.1757 -0.00616117 0)
(0.179776 -0.00607069 0)
(0.183792 -0.0059759 0)
(0.187742 -0.00587684 0)
(0.191625 -0.00577353 0)
(0.195438 -0.00566601 0)
(0.199178 -0.00555431 0)
(0.202842 -0.00543849 0)
(0.206428 -0.00531859 0)
(0.209932 -0.00519468 0)
(0.213352 -0.00506681 0)
(0.216686 -0.00493506 0)
(0.219931 -0.0047995 0)
(0.223084 -0.0046602 0)
(0.226143 -0.00451726 0)
(0.229105 -0.00437075 0)
(0.231969 -0.00422078 0)
(0.234732 -0.00406745 0)
(0.237391 -0.00391085 0)
(0.239945 -0.0037511 0)
(0.242391 -0.00358832 0)
(0.244728 -0.00342261 0)
(0.246954 -0.00325411 0)
(0.249066 -0.00308293 0)
(0.251064 -0.00290922 0)
(0.252944 -0.00273309 0)
(0.254707 -0.0025547 0)
(0.25635 -0.00237418 0)
(0.257872 -0.00219168 0)
(0.259272 -0.00200734 0)
(0.260548 -0.00182131 0)
(0.2617 -0.00163375 0)
(0.262726 -0.00144482 0)
(0.263626 -0.00125466 0)
(0.264398 -0.00106344 0)
(0.265043 -0.000871325 0)
(0.26556 -0.000678466 0)
(0.265948 -0.000485031 0)
(0.266207 -0.000291183 0)
(0.266336 -9.70887e-05 0)
(0.266595 0.000161906 0)
(0.266465 0.000485581 0)
(0.266206 0.000808843 0)
(0.265818 0.00113142 0)
(0.2653 0.00145303 0)
(0.264654 0.00177341 0)
(0.26388 0.00209229 0)
(0.262979 0.00240939 0)
(0.261951 0.00272446 0)
(0.260797 0.00303723 0)
(0.259519 0.00334744 0)
(0.258117 0.00365484 0)
(0.256592 0.00395917 0)
(0.254947 0.0042602 0)
(0.253181 0.00455768 0)
(0.251297 0.00485137 0)
(0.249297 0.00514105 0)
(0.247181 0.00542649 0)
(0.244951 0.00570747 0)
(0.242611 0.00598378 0)
(0.24016 0.00625522 0)
(0.237602 0.00652159 0)
(0.234939 0.00678271 0)
(0.232171 0.00703838 0)
(0.229303 0.00728844 0)
(0.226336 0.00753272 0)
(0.223272 0.00777106 0)
(0.220114 0.00800332 0)
(0.216864 0.00822935 0)
(0.213525 0.00844901 0)
(0.2101 0.0086622 0)
(0.20659 0.00886879 0)
(0.202999 0.00906868 0)
(0.19933 0.00926178 0)
(0.195584 0.00944799 0)
(0.191766 0.00962724 0)
(0.187877 0.00979946 0)
(0.183921 0.0099646 0)
(0.1799 0.0101226 0)
(0.175817 0.0102734 0)
(0.171676 0.010417 0)
(0.167478 0.0105534 0)
(0.163228 0.0106826 0)
(0.158927 0.0108045 0)
(0.154579 0.0109191 0)
(0.150187 0.0110265 0)
(0.145753 0.0111267 0)
(0.141281 0.0112198 0)
(0.136772 0.0113056 0)
(0.132231 0.0113844 0)
(0.12766 0.0114562 0)
(0.123062 0.0115209 0)
(0.118439 0.0115787 0)
(0.113795 0.0116297 0)
(0.109132 0.011674 0)
(0.104452 0.0117115 0)
(0.0997588 0.0117425 0)
(0.0950546 0.0117669 0)
(0.090342 0.011785 0)
(0.0856235 0.0117969 0)
(0.0809016 0.0118026 0)
(0.0761787 0.0118022 0)
(0.0714572 0.0117959 0)
(0.0667396 0.0117839 0)
(0.062028 0.0117662 0)
(0.0573247 0.011743 0)
(0.0526318 0.0117144 0)
(0.0479516 0.0116806 0)
(0.043286 0.0116417 0)
(0.0386371 0.0115978 0)
(0.0340068 0.0115491 0)
(0.029397 0.0114958 0)
(0.0248096 0.0114381 0)
(0.0202462 0.0113759 0)
(0.0157087 0.0113096 0)
(0.0111986 0.0112392 0)
(0.00671755 0.011165 0)
(0.00226706 0.011087 0)
(-0.00215141 0.0110054 0)
(-0.00653646 0.0109205 0)
(-0.0108868 0.0108322 0)
(-0.015201 0.0107408 0)
(-0.0194781 0.0106465 0)
(-0.0237167 0.0105493 0)
(-0.0279158 0.0104495 0)
(-0.0320744 0.0103472 0)
(-0.0361915 0.0102424 0)
(-0.0402662 0.0101355 0)
(-0.0442975 0.0100264 0)
(-0.0482847 0.00991536 0)
(-0.0522271 0.0098025 0)
(-0.0561239 0.00968794 0)
(-0.0599745 0.00957182 0)
(-0.0637783 0.00945425 0)
(-0.0675347 0.00933537 0)
(-0.0712433 0.0092153 0)
(-0.0749036 0.00909415 0)
(-0.0785151 0.00897203 0)
(-0.0820775 0.00884907 0)
(-0.0855906 0.00872536 0)
(-0.089054 0.00860101 0)
(-0.0924675 0.00847613 0)
(-0.0958309 0.00835081 0)
(-0.0991441 0.00822514 0)
(-0.102407 0.00809922 0)
(-0.105619 0.00797314 0)
(-0.108781 0.00784697 0)
(-0.111892 0.00772081 0)
(-0.114953 0.00759473 0)
(-0.117964 0.0074688 0)
(-0.120924 0.0073431 0)
(-0.123834 0.00721768 0)
(-0.126694 0.00709263 0)
(-0.129503 0.006968 0)
(-0.132263 0.00684384 0)
(-0.134974 0.00672021 0)
(-0.137635 0.00659717 0)
(-0.140247 0.00647477 0)
(-0.14281 0.00635304 0)
(-0.145325 0.00623204 0)
(-0.147791 0.0061118 0)
(-0.15021 0.00599237 0)
(-0.15258 0.00587377 0)
(-0.154904 0.00575604 0)
(-0.157181 0.0056392 0)
(-0.159411 0.0055233 0)
(-0.161595 0.00540834 0)
(-0.163733 0.00529436 0)
(-0.165826 0.00518137 0)
(-0.167874 0.00506939 0)
(-0.169877 0.00495844 0)
(-0.171836 0.00484853 0)
(-0.173752 0.00473967 0)
(-0.175624 0.00463187 0)
(-0.177453 0.00452514 0)
(-0.17924 0.00441948 0)
(-0.180984 0.00431491 0)
(-0.182688 0.00421141 0)
(-0.18435 0.004109 0)
(-0.185971 0.00400767 0)
(-0.187552 0.00390741 0)
(-0.189093 0.00380824 0)
(-0.190595 0.00371013 0)
(-0.192057 0.00361308 0)
(-0.193482 0.00351709 0)
(-0.194867 0.00342215 0)
(-0.196216 0.00332824 0)
(-0.197527 0.00323536 0)
(-0.198801 0.00314349 0)
(-0.200038 0.00305262 0)
(-0.20124 0.00296274 0)
(-0.202405 0.00287382 0)
(-0.203536 0.00278586 0)
(-0.204631 0.00269883 0)
(-0.205692 0.00261273 0)
(-0.206718 0.00252752 0)
(-0.207711 0.00244319 0)
(-0.20867 0.00235973 0)
(-0.209596 0.0022771 0)
(-0.210489 0.0021953 0)
(-0.21135 0.00211429 0)
(-0.212178 0.00203405 0)
(-0.212975 0.00195457 0)
(-0.21374 0.00187582 0)
(-0.214474 0.00179777 0)
(-0.215176 0.00172041 0)
(-0.215848 0.0016437 0)
(-0.216489 0.00156762 0)
(-0.2171 0.00149215 0)
(-0.217681 0.00141726 0)
(-0.218232 0.00134293 0)
(-0.218754 0.00126912 0)
(-0.219246 0.00119582 0)
(-0.219709 0.00112299 0)
(-0.220143 0.00105061 0)
(-0.220549 0.000978655 0)
(-0.220925 0.000907093 0)
(-0.221273 0.000835897 0)
(-0.221593 0.000765042 0)
(-0.221884 0.000694497 0)
(-0.222148 0.000624237 0)
(-0.222383 0.000554232 0)
(-0.22259 0.000484454 0)
(-0.22277 0.000414876 0)
(-0.222922 0.000345468 0)
(-0.223046 0.000276203 0)
(-0.223142 0.000207053 0)
(-0.223211 0.000137988 0)
(-0.223253 6.89795e-05 0)
(-0.223266 5.97695e-13 0)
(-0.223253 -6.89795e-05 0)
(-0.223211 -0.000137988 0)
(-0.223142 -0.000207053 0)
(-0.223046 -0.000276203 0)
(-0.222922 -0.000345468 0)
(-0.22277 -0.000414876 0)
(-0.22259 -0.000484454 0)
(-0.222383 -0.000554232 0)
(-0.222148 -0.000624237 0)
(-0.221884 -0.000694497 0)
(-0.221593 -0.000765042 0)
(-0.221273 -0.000835897 0)
(-0.220925 -0.000907093 0)
(-0.220549 -0.000978655 0)
(-0.220143 -0.00105061 0)
(-0.219709 -0.00112299 0)
(-0.219246 -0.00119582 0)
(-0.218754 -0.00126912 0)
(-0.218232 -0.00134293 0)
(-0.217681 -0.00141726 0)
(-0.2171 -0.00149215 0)
(-0.216489 -0.00156762 0)
(-0.215848 -0.0016437 0)
(-0.215176 -0.00172041 0)
(-0.214474 -0.00179777 0)
(-0.21374 -0.00187582 0)
(-0.212975 -0.00195457 0)
(-0.212178 -0.00203405 0)
(-0.21135 -0.00211429 0)
(-0.210489 -0.0021953 0)
(-0.209596 -0.0022771 0)
(-0.20867 -0.00235973 0)
(-0.207711 -0.00244319 0)
(-0.206718 -0.00252752 0)
(-0.205692 -0.00261273 0)
(-0.204631 -0.00269883 0)
(-0.203536 -0.00278586 0)
(-0.202405 -0.00287382 0)
(-0.20124 -0.00296274 0)
(-0.200038 -0.00305262 0)
(-0.198801 -0.00314349 0)
(-0.197527 -0.00323536 0)
(-0.196216 -0.00332824 0)
(-0.194867 -0.00342215 0)
(-0.193482 -0.00351709 0)
(-0.192057 -0.00361308 0)
(-0.190595 -0.00371013 0)
(-0.189093 -0.00380824 0)
(-0.187552 -0.00390741 0)
(-0.185971 -0.00400767 0)
(-0.18435 -0.004109 0)
(-0.182688 -0.00421141 0)
(-0.180984 -0.00431491 0)
(-0.17924 -0.00441948 0)
(-0.177453 -0.00452514 0)
(-0.175624 -0.00463187 0)
(-0.173752 -0.00473967 0)
(-0.171836 -0.00484853 0)
(-0.169877 -0.00495844 0)
(-0.167874 -0.00506939 0)
(-0.165826 -0.00518137 0)
(-0.163733 -0.00529436 0)
(-0.161595 -0.00540834 0)
(-0.159411 -0.0055233 0)
(-0.157181 -0.0056392 0)
(-0.154904 -0.00575604 0)
(-0.15258 -0.00587377 0)
(-0.15021 -0.00599237 0)
(-0.147791 -0.0061118 0)
(-0.145325 -0.00623204 0)
(-0.14281 -0.00635304 0)
(-0.140247 -0.00647477 0)
(-0.137635 -0.00659717 0)
(-0.134974 -0.00672021 0)
(-0.132263 -0.00684384 0)
(-0.129503 -0.006968 0)
(-0.126694 -0.00709263 0)
(-0.123834 -0.00721768 0)
(-0.120924 -0.0073431 0)
(-0.117964 -0.0074688 0)
(-0.114953 -0.00759473 0)
(-0.111892 -0.00772081 0)
(-0.108781 -0.00784697 0)
(-0.105619 -0.00797314 0)
(-0.102407 -0.00809922 0)
(-0.0991441 -0.00822514 0)
(-0.0958309 -0.00835081 0)
(-0.0924675 -0.00847613 0)
(-0.089054 -0.00860101 0)
(-0.0855906 -0.00872536 0)
(-0.0820775 -0.00884907 0)
(-0.0785151 -0.00897203 0)
(-0.0749036 -0.00909415 0)
(-0.0712433 -0.0092153 0)
(-0.0675347 -0.00933537 0)
(-0.0637783 -0.00945425 0)
(-0.0599745 -0.00957182 0)
(-0.0561239 -0.00968794 0)
(-0.0522271 -0.0098025 0)
(-0.0482847 -0.00991536 0)
(-0.0442975 -0.0100264 0)
(-0.0402662 -0.0101355 0)
(-0.0361915 -0.0102424 0)
(-0.0320744 -0.0103472 0)
(-0.0279158 -0.0104495 0)
(-0.0237167 -0.0105493 0)
(-0.0194781 -0.0106465 0)
(-0.015201 -0.0107408 0)
(-0.0108868 -0.0108322 0)
(-0.00653646 -0.0109205 0)
(-0.00215141 -0.0110054 0)
(0.00226706 -0.011087 0)
(0.00671755 -0.011165 0)
(0.0111986 -0.0112392 0)
(0.0157087 -0.0113096 0)
(0.0202462 -0.0113759 0)
(0.0248096 -0.0114381 0)
(0.029397 -0.0114958 0)
(0.0340068 -0.0115491 0)
(0.0386371 -0.0115978 0)
(0.043286 -0.0116417 0)
(0.0479516 -0.0116806 0)
(0.0526318 -0.0117144 0)
(0.0573247 -0.011743 0)
(0.062028 -0.0117662 0)
(0.0667396 -0.0117839 0)
(0.0714572 -0.0117959 0)
(0.0761787 -0.0118022 0)
(0.0809016 -0.0118026 0)
(0.0856235 -0.0117969 0)
(0.090342 -0.011785 0)
(0.0950546 -0.0117669 0)
(0.0997588 -0.0117425 0)
(0.104452 -0.0117115 0)
(0.109132 -0.011674 0)
(0.113795 -0.0116297 0)
(0.118439 -0.0115787 0)
(0.123062 -0.0115209 0)
(0.12766 -0.0114562 0)
(0.132231 -0.0113844 0)
(0.136772 -0.0113056 0)
(0.141281 -0.0112198 0)
(0.145753 -0.0111267 0)
(0.150187 -0.0110265 0)
(0.154579 -0.0109191 0)
(0.158927 -0.0108045 0)
(0.163228 -0.0106826 0)
(0.167478 -0.0105534 0)
(0.171676 -0.010417 0)
(0.175817 -0.0102734 0)
(0.1799 -0.0101226 0)
(0.183921 -0.0099646 0)
(0.187877 -0.00979946 0)
(0.191766 -0.00962724 0)
(0.195584 -0.00944799 0)
(0.19933 -0.00926178 0)
(0.202999 -0.00906868 0)
(0.20659 -0.00886879 0)
(0.2101 -0.0086622 0)
(0.213525 -0.00844901 0)
(0.216864 -0.00822935 0)
(0.220114 -0.00800332 0)
(0.223272 -0.00777106 0)
(0.226336 -0.00753272 0)
(0.229303 -0.00728844 0)
(0.232171 -0.00703838 0)
(0.234939 -0.00678271 0)
(0.237602 -0.00652159 0)
(0.24016 -0.00625522 0)
(0.242611 -0.00598378 0)
(0.244951 -0.00570747 0)
(0.247181 -0.00542649 0)
(0.249297 -0.00514105 0)
(0.251297 -0.00485137 0)
(0.253181 -0.00455768 0)
(0.254947 -0.0042602 0)
(0.256592 -0.00395917 0)
(0.258117 -0.00365484 0)
(0.259519 -0.00334744 0)
(0.260797 -0.00303723 0)
(0.261951 -0.00272446 0)
(0.262979 -0.00240939 0)
(0.26388 -0.00209229 0)
(0.264654 -0.00177341 0)
(0.2653 -0.00145303 0)
(0.265818 -0.00113142 0)
(0.266206 -0.000808843 0)
(0.266465 -0.000485581 0)
(0.266595 -0.000161906 0)
(0.266984 0.000226862 0)
(0.266854 0.000680393 0)
(0.266594 0.00113334 0)
(0.266205 0.00158533 0)
(0.265686 0.00203597 0)
(0.265038 0.00248488 0)
(0.264262 0.00293168 0)
(0.263359 0.003376 0)
(0.262328 0.00381746 0)
(0.261172 0.0042557 0)
(0.25989 0.00469036 0)
(0.258484 0.00512107 0)
(0.256956 0.00554748 0)
(0.255306 0.00596926 0)
(0.253536 0.00638606 0)
(0.251648 0.00679755 0)
(0.249642 0.00720341 0)